<?xml version="1.0" encoding="UTF-8"?>

<!-- generated on 2025-04-11 11:58:36 by Eclipse SUMO GUI Version 1.19.0
<configuration xmlns:xsi="http://www.w3.org/2001/XMLSchema-instance" xsi:noNamespaceSchemaLocation="http://sumo.dlr.de/xsd/sumoConfiguration.xsd">

    <input>
        <net-file value="C:\Users\Ajay Kumar\Desktop\Git Repos\Traffic-Optimizer\2025-04-04-13-04-14\osm.net.xml.gz"/>
        <route-files value="C:\Users\Ajay Kumar\Desktop\Git Repos\Traffic-Optimizer\2025-04-04-13-04-14\osm_pt.rou.xml,C:\Users\Ajay Kumar\Desktop\Git Repos\Traffic-Optimizer\2025-04-04-13-04-14\osm.motorcycle.trips.xml,C:\Users\Ajay Kumar\Desktop\Git Repos\Traffic-Optimizer\2025-04-04-13-04-14\osm.passenger.trips.xml"/>
        <additional-files value="C:\Users\Ajay Kumar\Desktop\Git Repos\Traffic-Optimizer\2025-04-04-13-04-14\osm.poly.xml.gz,C:\Users\Ajay Kumar\Desktop\Git Repos\Traffic-Optimizer\2025-04-04-13-04-14\osm_stops.add.xml"/>
    </input>

    <output>
        <tripinfo-output value="C:\Users\Ajay Kumar\Desktop\Git Repos\Traffic-Optimizer\2025-04-04-13-04-14\tripinfo.xml"/>
    </output>

    <time>
        <begin value="0"/>
        <end value="10000"/>
        <step-length value="1"/>
    </time>

    <processing>
        <ignore-route-errors value="true"/>
    </processing>

    <routing>
        <device.rerouting.adaptation-steps value="18"/>
        <device.rerouting.adaptation-interval value="10"/>
    </routing>

    <report>
        <verbose value="true"/>
        <duration-log.statistics value="true"/>
        <no-step-log value="true"/>
    </report>

    <traci_server>
        <remote-port value="50708"/>
    </traci_server>

    <gui_only>
        <gui-settings-file value="C:\Users\Ajay Kumar\Desktop\Git Repos\Traffic-Optimizer\2025-04-04-13-04-14\osm.view.xml"/>
    </gui_only>

</configuration>
-->

<tripinfos xmlns:xsi="http://www.w3.org/2001/XMLSchema-instance" xsi:noNamespaceSchemaLocation="http://sumo.dlr.de/xsd/tripinfo_file.xsd">
    <tripinfo id="motorcycle9" depart="25.00" departLane="141597069#10_0" departPos="2.30" departSpeed="0.00" departDelay="0.59" arrival="52.00" arrivalLane="646056698#9_0" arrivalPos="9.80" arrivalSpeed="11.64" duration="27.00" routeLength="281.76" waitingTime="0.00" waitingCount="0" stopTime="0.00" timeLoss="6.48" rerouteNo="1" devices="tripinfo_motorcycle9 routing_motorcycle9" vType="motorcycle_motorcycle" speedFactor="1.03" vaporized=""/>
    <tripinfo id="veh11" depart="10.00" departLane="35330746#10_0" departPos="5.10" departSpeed="0.00" departDelay="0.05" arrival="53.00" arrivalLane="-212743818#11_0" arrivalPos="7.38" arrivalSpeed="7.97" duration="43.00" routeLength="431.03" waitingTime="0.00" waitingCount="0" stopTime="0.00" timeLoss="10.11" rerouteNo="1" devices="tripinfo_veh11 routing_veh11" vType="veh_passenger" speedFactor="1.00" vaporized=""/>
    <tripinfo id="motorcycle4" depart="11.00" departLane="-212744404#4_0" departPos="2.30" departSpeed="0.00" departDelay="0.15" arrival="65.00" arrivalLane="-190041763#2_0" arrivalPos="22.97" arrivalSpeed="22.87" duration="54.00" routeLength="1002.25" waitingTime="0.00" waitingCount="0" stopTime="0.00" timeLoss="10.75" rerouteNo="1" devices="tripinfo_motorcycle4 routing_motorcycle4" vType="motorcycle_motorcycle" speedFactor="1.05" vaporized=""/>
    <tripinfo id="motorcycle1" depart="3.00" departLane="212744506#0_0" departPos="2.30" departSpeed="0.00" departDelay="0.29" arrival="69.00" arrivalLane="212743845#4_0" arrivalPos="75.31" arrivalSpeed="12.91" duration="66.00" routeLength="663.95" waitingTime="0.00" waitingCount="0" stopTime="0.00" timeLoss="12.02" rerouteNo="1" devices="tripinfo_motorcycle1 routing_motorcycle1" vType="motorcycle_motorcycle" speedFactor="0.94" vaporized=""/>
    <tripinfo id="motorcycle8" depart="22.00" departLane="213174422#1_0" departPos="2.30" departSpeed="0.00" departDelay="0.30" arrival="73.00" arrivalLane="212744446#4_0" arrivalPos="103.70" arrivalSpeed="12.36" duration="51.00" routeLength="667.74" waitingTime="0.00" waitingCount="0" stopTime="0.00" timeLoss="15.36" rerouteNo="1" devices="tripinfo_motorcycle8 routing_motorcycle8" vType="motorcycle_motorcycle" speedFactor="1.09" vaporized=""/>
    <tripinfo id="veh5" depart="5.00" departLane="212744466#4_0" departPos="5.10" departSpeed="0.00" departDelay="0.48" arrival="73.00" arrivalLane="1311494166_0" arrivalPos="57.83" arrivalSpeed="13.63" duration="68.00" routeLength="683.97" waitingTime="2.00" waitingCount="1" stopTime="0.00" timeLoss="24.52" rerouteNo="1" devices="tripinfo_veh5 routing_veh5" vType="veh_passenger" speedFactor="1.03" vaporized=""/>
    <tripinfo id="motorcycle0" depart="0.00" departLane="213174131#0_0" departPos="2.30" departSpeed="0.00" departDelay="0.00" arrival="80.00" arrivalLane="-212744424#2_0" arrivalPos="42.35" arrivalSpeed="13.41" duration="80.00" routeLength="1183.07" waitingTime="0.00" waitingCount="0" stopTime="0.00" timeLoss="12.91" rerouteNo="1" devices="tripinfo_motorcycle0 routing_motorcycle0" vType="motorcycle_motorcycle" speedFactor="1.06" vaporized=""/>
    <tripinfo id="motorcycle5" depart="14.00" departLane="213174467#0_0" departPos="2.30" departSpeed="0.00" departDelay="0.44" arrival="80.00" arrivalLane="-1082232645#1_0" arrivalPos="58.57" arrivalSpeed="11.68" duration="66.00" routeLength="612.88" waitingTime="0.00" waitingCount="0" stopTime="0.00" timeLoss="11.74" rerouteNo="1" devices="tripinfo_motorcycle5 routing_motorcycle5" vType="motorcycle_motorcycle" speedFactor="0.89" vaporized=""/>
    <tripinfo id="motorcycle2" depart="6.00" departLane="-1209689620#0_0" departPos="2.30" departSpeed="0.00" departDelay="0.58" arrival="91.00" arrivalLane="212744176#0_0" arrivalPos="22.08" arrivalSpeed="11.76" duration="85.00" routeLength="1433.06" waitingTime="0.00" waitingCount="0" stopTime="0.00" timeLoss="22.99" rerouteNo="1" devices="tripinfo_motorcycle2 routing_motorcycle2" vType="motorcycle_motorcycle" speedFactor="1.03" vaporized=""/>
    <tripinfo id="motorcycle28" depart="76.00" departLane="212744401#0_0" departPos="2.30" departSpeed="0.00" departDelay="0.06" arrival="93.00" arrivalLane="141597069#16_0" arrivalPos="43.87" arrivalSpeed="15.42" duration="17.00" routeLength="174.95" waitingTime="0.00" waitingCount="0" stopTime="0.00" timeLoss="5.02" rerouteNo="1" devices="tripinfo_motorcycle28 routing_motorcycle28" vType="motorcycle_motorcycle" speedFactor="1.18" vaporized=""/>
    <tripinfo id="motorcycle29" depart="79.00" departLane="212681606#0_0" departPos="2.30" departSpeed="0.00" departDelay="0.34" arrival="93.00" arrivalLane="-421045957#4_0" arrivalPos="61.46" arrivalSpeed="13.65" duration="14.00" routeLength="147.73" waitingTime="0.00" waitingCount="0" stopTime="0.00" timeLoss="3.86" rerouteNo="1" devices="tripinfo_motorcycle29 routing_motorcycle29" vType="motorcycle_motorcycle" speedFactor="1.15" vaporized=""/>
    <tripinfo id="motorcycle17" depart="47.00" departLane="-212743842#3_0" departPos="2.30" departSpeed="0.00" departDelay="0.89" arrival="94.00" arrivalLane="212744446#0_0" arrivalPos="53.20" arrivalSpeed="13.15" duration="47.00" routeLength="693.06" waitingTime="0.00" waitingCount="0" stopTime="0.00" timeLoss="11.30" rerouteNo="1" devices="tripinfo_motorcycle17 routing_motorcycle17" vType="motorcycle_motorcycle" speedFactor="1.16" vaporized=""/>
    <tripinfo id="veh48" depart="44.00" departLane="-212743989_0" departPos="5.10" departSpeed="0.00" departDelay="0.60" arrival="96.00" arrivalLane="189074095#9_0" arrivalPos="81.93" arrivalSpeed="28.40" duration="52.00" routeLength="667.33" waitingTime="0.00" waitingCount="0" stopTime="0.00" timeLoss="19.42" rerouteNo="1" devices="tripinfo_veh48 routing_veh48" vType="veh_passenger" speedFactor="1.03" vaporized=""/>
    <tripinfo id="motorcycle6" depart="17.00" departLane="27061757#2_0" departPos="2.30" departSpeed="0.00" departDelay="0.73" arrival="101.00" arrivalLane="-212743800#8_0" arrivalPos="16.23" arrivalSpeed="10.04" duration="84.00" routeLength="1566.62" waitingTime="0.00" waitingCount="0" stopTime="0.00" timeLoss="14.82" rerouteNo="1" devices="tripinfo_motorcycle6 routing_motorcycle6" vType="motorcycle_motorcycle" speedFactor="0.94" vaporized=""/>
    <tripinfo id="veh12" depart="11.00" departLane="-422411832_0" departPos="5.10" departSpeed="0.00" departDelay="0.15" arrival="101.00" arrivalLane="-35330703#1_0" arrivalPos="16.62" arrivalSpeed="9.41" duration="90.00" routeLength="1235.41" waitingTime="0.00" waitingCount="0" stopTime="0.00" timeLoss="31.84" rerouteNo="1" devices="tripinfo_veh12 routing_veh12" vType="veh_passenger" speedFactor="1.04" vaporized=""/>
    <tripinfo id="veh18" depart="17.00" departLane="35330746#2_0" departPos="5.10" departSpeed="0.00" departDelay="0.73" arrival="101.00" arrivalLane="-190041747#4_0" arrivalPos="12.46" arrivalSpeed="12.27" duration="84.00" routeLength="835.26" waitingTime="0.00" waitingCount="0" stopTime="0.00" timeLoss="15.46" rerouteNo="1" devices="tripinfo_veh18 routing_veh18" vType="veh_passenger" speedFactor="0.92" vaporized=""/>
    <tripinfo id="veh23" depart="21.00" departLane="413544888#3_0" departPos="5.10" departSpeed="0.00" departDelay="0.21" arrival="101.00" arrivalLane="212744351#1_0" arrivalPos="14.41" arrivalSpeed="15.22" duration="80.00" routeLength="1051.27" waitingTime="0.00" waitingCount="0" stopTime="0.00" timeLoss="24.28" rerouteNo="1" devices="tripinfo_veh23 routing_veh23" vType="veh_passenger" speedFactor="1.12" vaporized=""/>
    <tripinfo id="veh42" depart="38.00" departLane="-212681665_0" departPos="5.10" departSpeed="0.00" departDelay="0.03" arrival="106.00" arrivalLane="212682034#1_0" arrivalPos="71.48" arrivalSpeed="16.07" duration="68.00" routeLength="764.11" waitingTime="0.00" waitingCount="0" stopTime="0.00" timeLoss="16.68" rerouteNo="1" devices="tripinfo_veh42 routing_veh42" vType="veh_passenger" speedFactor="1.18" vaporized=""/>
    <tripinfo id="veh32" depart="29.00" departLane="212744401#0_0" departPos="5.10" departSpeed="0.00" departDelay="0.07" arrival="110.00" arrivalLane="421037421#2_0" arrivalPos="6.93" arrivalSpeed="13.10" duration="81.00" routeLength="771.69" waitingTime="0.00" waitingCount="0" stopTime="0.00" timeLoss="20.87" rerouteNo="1" devices="tripinfo_veh32 routing_veh32" vType="veh_passenger" speedFactor="1.01" vaporized=""/>
    <tripinfo id="veh14" depart="13.00" departLane="-213174552#1_0" departPos="5.10" departSpeed="0.00" departDelay="0.34" arrival="111.00" arrivalLane="212744519#0_0" arrivalPos="9.90" arrivalSpeed="9.50" duration="98.00" routeLength="1348.00" waitingTime="0.00" waitingCount="0" stopTime="0.00" timeLoss="26.68" rerouteNo="1" devices="tripinfo_veh14 routing_veh14" vType="veh_passenger" speedFactor="1.02" vaporized=""/>
    <tripinfo id="motorcycle24" depart="66.00" departLane="190041502#6_0" departPos="2.30" departSpeed="0.00" departDelay="0.90" arrival="116.00" arrivalLane="-213173986#7_0" arrivalPos="56.87" arrivalSpeed="11.40" duration="50.00" routeLength="535.88" waitingTime="3.00" waitingCount="1" stopTime="0.00" timeLoss="16.62" rerouteNo="1" devices="tripinfo_motorcycle24 routing_motorcycle24" vType="motorcycle_motorcycle" speedFactor="0.92" vaporized=""/>
    <tripinfo id="veh24" depart="22.00" departLane="-213174147#6_0" departPos="0.20" departSpeed="0.00" departDelay="0.30" arrival="117.00" arrivalLane="421000193#13_0" arrivalPos="17.32" arrivalSpeed="14.34" duration="95.00" routeLength="943.16" waitingTime="0.00" waitingCount="0" stopTime="0.00" timeLoss="29.37" rerouteNo="1" devices="tripinfo_veh24 routing_veh24" vType="veh_passenger" speedFactor="1.10" vaporized=""/>
    <tripinfo id="motorcycle7" depart="19.00" departLane="-212681379#1_0" departPos="2.30" departSpeed="0.00" departDelay="0.01" arrival="118.00" arrivalLane="-212681417#1_0" arrivalPos="21.13" arrivalSpeed="10.19" duration="99.00" routeLength="912.31" waitingTime="0.00" waitingCount="0" stopTime="0.00" timeLoss="18.17" rerouteNo="1" devices="tripinfo_motorcycle7 routing_motorcycle7" vType="motorcycle_motorcycle" speedFactor="0.86" vaporized=""/>
    <tripinfo id="veh46" depart="42.00" departLane="-648527012#3_0" departPos="5.10" departSpeed="0.00" departDelay="0.41" arrival="118.00" arrivalLane="-35330736#7_0" arrivalPos="9.50" arrivalSpeed="12.66" duration="76.00" routeLength="791.49" waitingTime="3.00" waitingCount="1" stopTime="0.00" timeLoss="25.20" rerouteNo="1" devices="tripinfo_veh46 routing_veh46" vType="veh_passenger" speedFactor="0.94" vaporized=""/>
    <tripinfo id="motorcycle22" depart="60.00" departLane="35330767#3_0" departPos="2.30" departSpeed="0.00" departDelay="0.33" arrival="122.00" arrivalLane="-213174623#2_0" arrivalPos="10.30" arrivalSpeed="1.59" duration="62.00" routeLength="487.32" waitingTime="0.00" waitingCount="0" stopTime="0.00" timeLoss="12.73" rerouteNo="1" devices="tripinfo_motorcycle22 routing_motorcycle22" vType="motorcycle_motorcycle" speedFactor="0.83" vaporized=""/>
    <tripinfo id="veh34" depart="31.00" departLane="212743800#1_0" departPos="5.10" departSpeed="0.00" departDelay="0.26" arrival="122.00" arrivalLane="-420696847_0" arrivalPos="37.10" arrivalSpeed="13.51" duration="91.00" routeLength="1239.07" waitingTime="4.00" waitingCount="2" stopTime="0.00" timeLoss="36.51" rerouteNo="1" devices="tripinfo_veh34 routing_veh34" vType="veh_passenger" speedFactor="1.06" vaporized=""/>
    <tripinfo id="veh8" depart="8.00" departLane="-212744480#2_0" departPos="5.10" departSpeed="0.00" departDelay="0.77" arrival="123.00" arrivalLane="190067592#7_1" arrivalPos="483.69" arrivalSpeed="25.62" duration="115.00" routeLength="2620.32" waitingTime="0.00" waitingCount="0" stopTime="0.00" timeLoss="11.92" rerouteNo="1" devices="tripinfo_veh8 routing_veh8" vType="veh_passenger" speedFactor="0.97" vaporized=""/>
    <tripinfo id="motorcycle18" depart="49.00" departLane="189088018#3_0" departPos="2.30" departSpeed="0.00" departDelay="0.18" arrival="124.00" arrivalLane="212743969#0_0" arrivalPos="25.54" arrivalSpeed="11.31" duration="75.00" routeLength="1304.33" waitingTime="0.00" waitingCount="0" stopTime="0.00" timeLoss="14.20" rerouteNo="1" devices="tripinfo_motorcycle18 routing_motorcycle18" vType="motorcycle_motorcycle" speedFactor="1.02" vaporized=""/>
    <tripinfo id="veh25" depart="23.00" departLane="212743917#5_0" departPos="5.10" departSpeed="0.00" departDelay="0.40" arrival="124.00" arrivalLane="212744518#2_0" arrivalPos="25.20" arrivalSpeed="11.44" duration="101.00" routeLength="737.18" waitingTime="7.00" waitingCount="3" stopTime="0.00" timeLoss="52.85" rerouteNo="1" devices="tripinfo_veh25 routing_veh25" vType="veh_passenger" speedFactor="1.06" vaporized=""/>
    <tripinfo id="motorcycle20" depart="55.00" departLane="-212744482#0_0" departPos="0.20" departSpeed="0.00" departDelay="0.75" arrival="127.00" arrivalLane="1239868808#0_0" arrivalPos="14.44" arrivalSpeed="11.96" duration="72.00" routeLength="774.48" waitingTime="0.00" waitingCount="0" stopTime="0.00" timeLoss="11.98" rerouteNo="1" devices="tripinfo_motorcycle20 routing_motorcycle20" vType="motorcycle_motorcycle" speedFactor="0.97" vaporized=""/>
    <tripinfo id="motorcycle40" depart="109.00" departLane="-212744480#4_0" departPos="2.30" departSpeed="0.00" departDelay="0.51" arrival="128.00" arrivalLane="-413544888#0_0" arrivalPos="17.46" arrivalSpeed="12.12" duration="19.00" routeLength="156.81" waitingTime="0.00" waitingCount="0" stopTime="0.00" timeLoss="6.66" rerouteNo="1" devices="tripinfo_motorcycle40 routing_motorcycle40" vType="motorcycle_motorcycle" speedFactor="1.09" vaporized=""/>
    <tripinfo id="motorcycle16" depart="44.00" departLane="-212682287#1_0" departPos="2.30" departSpeed="0.00" departDelay="0.60" arrival="129.00" arrivalLane="212681457#15_0" arrivalPos="25.35" arrivalSpeed="12.77" duration="85.00" routeLength="1294.38" waitingTime="0.00" waitingCount="0" stopTime="0.00" timeLoss="13.88" rerouteNo="1" devices="tripinfo_motorcycle16 routing_motorcycle16" vType="motorcycle_motorcycle" speedFactor="0.94" vaporized=""/>
    <tripinfo id="veh50" depart="46.00" departLane="-212681763#1_0" departPos="5.10" departSpeed="0.00" departDelay="0.80" arrival="131.00" arrivalLane="791664984_0" arrivalPos="53.52" arrivalSpeed="13.83" duration="85.00" routeLength="1505.75" waitingTime="0.00" waitingCount="0" stopTime="0.00" timeLoss="13.68" rerouteNo="1" devices="tripinfo_veh50 routing_veh50" vType="veh_passenger" speedFactor="1.06" vaporized=""/>
    <tripinfo id="motorcycle19" depart="52.00" departLane="24501900#3_0" departPos="2.30" departSpeed="0.00" departDelay="0.47" arrival="132.00" arrivalLane="-213174086#1_0" arrivalPos="25.19" arrivalSpeed="12.52" duration="80.00" routeLength="930.61" waitingTime="16.00" waitingCount="2" stopTime="0.00" timeLoss="34.39" rerouteNo="1" devices="tripinfo_motorcycle19 routing_motorcycle19" vType="motorcycle_motorcycle" speedFactor="1.01" vaporized=""/>
    <tripinfo id="veh41" depart="38.00" departLane="-212681411#0_0" departPos="5.10" departSpeed="0.00" departDelay="0.93" arrival="132.00" arrivalLane="-141596946#10_0" arrivalPos="20.65" arrivalSpeed="10.00" duration="94.00" routeLength="926.50" waitingTime="0.00" waitingCount="0" stopTime="0.00" timeLoss="25.82" rerouteNo="1" devices="tripinfo_veh41 routing_veh41" vType="veh_passenger" speedFactor="0.92" vaporized=""/>
    <tripinfo id="veh88" depart="80.00" departLane="212744167#1_0" departPos="5.10" departSpeed="0.00" departDelay="0.44" arrival="132.00" arrivalLane="1055445115#2_0" arrivalPos="13.23" arrivalSpeed="12.73" duration="52.00" routeLength="545.09" waitingTime="0.00" waitingCount="0" stopTime="0.00" timeLoss="9.63" rerouteNo="1" devices="tripinfo_veh88 routing_veh88" vType="veh_passenger" speedFactor="0.99" vaporized=""/>
    <tripinfo id="veh28" depart="26.00" departLane="190041503#1_0" departPos="5.10" departSpeed="0.00" departDelay="0.69" arrival="133.00" arrivalLane="212744093#1_0" arrivalPos="12.63" arrivalSpeed="12.55" duration="107.00" routeLength="2008.54" waitingTime="0.00" waitingCount="0" stopTime="0.00" timeLoss="24.35" rerouteNo="1" devices="tripinfo_veh28 routing_veh28" vType="veh_passenger" speedFactor="0.95" vaporized=""/>
    <tripinfo id="veh49" depart="45.00" departLane="-213174147#5_0" departPos="5.10" departSpeed="0.00" departDelay="0.70" arrival="133.00" arrivalLane="212682287#1_0" arrivalPos="23.37" arrivalSpeed="11.11" duration="88.00" routeLength="1072.08" waitingTime="3.00" waitingCount="1" stopTime="0.00" timeLoss="34.71" rerouteNo="1" devices="tripinfo_veh49 routing_veh49" vType="veh_passenger" speedFactor="1.02" vaporized=""/>
    <tripinfo id="veh19" depart="18.00" departLane="-212744529#0_0" departPos="5.10" departSpeed="0.00" departDelay="0.82" arrival="137.00" arrivalLane="-213174396#0_0" arrivalPos="47.89" arrivalSpeed="14.07" duration="119.00" routeLength="1157.10" waitingTime="6.00" waitingCount="1" stopTime="0.00" timeLoss="39.89" rerouteNo="1" devices="tripinfo_veh19 routing_veh19" vType="veh_passenger" speedFactor="1.09" vaporized=""/>
    <tripinfo id="veh20" depart="19.00" departLane="190041728#1_0" departPos="5.10" departSpeed="0.00" departDelay="0.92" arrival="137.00" arrivalLane="-212744543#4_0" arrivalPos="6.96" arrivalSpeed="14.50" duration="118.00" routeLength="1479.63" waitingTime="9.00" waitingCount="1" stopTime="0.00" timeLoss="44.86" rerouteNo="1" devices="tripinfo_veh20 routing_veh20" vType="veh_passenger" speedFactor="1.06" vaporized=""/>
    <tripinfo id="veh94" depart="88.00" departLane="646056704_0" departPos="0.20" departSpeed="0.00" departDelay="3.01" arrival="144.00" arrivalLane="420696858#2_0" arrivalPos="5.80" arrivalSpeed="10.35" duration="56.00" routeLength="624.83" waitingTime="0.00" waitingCount="0" stopTime="0.00" timeLoss="19.68" rerouteNo="1" devices="tripinfo_veh94 routing_veh94" vType="veh_passenger" speedFactor="0.98" vaporized=""/>
    <tripinfo id="motorcycle12" depart="33.00" departLane="-212744474#2_0" departPos="2.30" departSpeed="0.00" departDelay="0.45" arrival="145.00" arrivalLane="-213174242#9_0" arrivalPos="10.04" arrivalSpeed="11.83" duration="112.00" routeLength="1728.97" waitingTime="0.00" waitingCount="0" stopTime="0.00" timeLoss="19.06" rerouteNo="1" devices="tripinfo_motorcycle12 routing_motorcycle12" vType="motorcycle_motorcycle" speedFactor="0.99" vaporized=""/>
    <tripinfo id="veh30" depart="28.00" departLane="-212744529#3_0" departPos="5.10" departSpeed="0.00" departDelay="0.88" arrival="145.00" arrivalLane="1240080043_0" arrivalPos="34.14" arrivalSpeed="11.94" duration="117.00" routeLength="1278.41" waitingTime="0.00" waitingCount="0" stopTime="0.00" timeLoss="21.27" rerouteNo="1" devices="tripinfo_veh30 routing_veh30" vType="veh_passenger" speedFactor="0.89" vaporized=""/>
    <tripinfo id="veh16" depart="15.00" departLane="-420481979#0_0" departPos="5.10" departSpeed="0.00" departDelay="0.53" arrival="148.00" arrivalLane="190041502#4_0" arrivalPos="21.16" arrivalSpeed="11.95" duration="133.00" routeLength="1767.34" waitingTime="10.00" waitingCount="2" stopTime="0.00" timeLoss="47.54" rerouteNo="1" devices="tripinfo_veh16 routing_veh16" vType="veh_passenger" speedFactor="0.89" vaporized=""/>
    <tripinfo id="motorcycle13" depart="36.00" departLane="212682073#4_0" departPos="2.30" departSpeed="0.00" departDelay="0.74" arrival="149.00" arrivalLane="-35330962#3_0" arrivalPos="58.32" arrivalSpeed="12.02" duration="113.00" routeLength="1170.18" waitingTime="0.00" waitingCount="0" stopTime="0.00" timeLoss="21.03" rerouteNo="1" devices="tripinfo_motorcycle13 routing_motorcycle13" vType="motorcycle_motorcycle" speedFactor="0.93" vaporized=""/>
    <tripinfo id="veh10" depart="10.00" departLane="213174548#0_0" departPos="5.10" departSpeed="0.00" departDelay="0.96" arrival="149.00" arrivalLane="212744226#1_0" arrivalPos="13.14" arrivalSpeed="8.77" duration="139.00" routeLength="2196.22" waitingTime="0.00" waitingCount="0" stopTime="0.00" timeLoss="27.86" rerouteNo="1" devices="tripinfo_veh10 routing_veh10" vType="veh_passenger" speedFactor="0.98" vaporized=""/>
    <tripinfo id="veh74" depart="67.00" departLane="35330735#0_0" departPos="5.10" departSpeed="0.00" departDelay="0.10" arrival="149.00" arrivalLane="190067592#7_1" arrivalPos="483.69" arrivalSpeed="26.46" duration="82.00" routeLength="1446.01" waitingTime="0.00" waitingCount="0" stopTime="0.00" timeLoss="16.85" rerouteNo="1" devices="tripinfo_veh74 routing_veh74" vType="veh_passenger" speedFactor="0.97" vaporized=""/>
    <tripinfo id="motorcycle26" depart="71.00" departLane="-141597069#8_0" departPos="2.30" departSpeed="0.00" departDelay="0.48" arrival="150.00" arrivalLane="-413300366#2_0" arrivalPos="34.66" arrivalSpeed="14.93" duration="79.00" routeLength="895.85" waitingTime="2.00" waitingCount="1" stopTime="0.00" timeLoss="28.97" rerouteNo="1" devices="tripinfo_motorcycle26 routing_motorcycle26" vType="motorcycle_motorcycle" speedFactor="1.13" vaporized=""/>
    <tripinfo id="veh45" depart="41.00" departLane="-87497495#0_0" departPos="5.10" departSpeed="0.00" departDelay="0.32" arrival="150.00" arrivalLane="-141597070#7_0" arrivalPos="17.14" arrivalSpeed="14.65" duration="109.00" routeLength="1938.19" waitingTime="0.00" waitingCount="0" stopTime="0.00" timeLoss="28.33" rerouteNo="1" devices="tripinfo_veh45 routing_veh45" vType="veh_passenger" speedFactor="1.07" vaporized=""/>
    <tripinfo id="motorcycle3" depart="9.00" departLane="212682298#1_0" departPos="2.30" departSpeed="0.00" departDelay="0.86" arrival="151.00" arrivalLane="189074095#4_0" arrivalPos="32.39" arrivalSpeed="20.32" duration="142.00" routeLength="1263.95" waitingTime="7.00" waitingCount="2" stopTime="0.00" timeLoss="39.79" rerouteNo="1" devices="tripinfo_motorcycle3 routing_motorcycle3" vType="motorcycle_motorcycle" speedFactor="0.83" vaporized=""/>
    <tripinfo id="veh63" depart="57.00" departLane="35330985#3_0" departPos="5.10" departSpeed="0.00" departDelay="0.04" arrival="151.00" arrivalLane="-421037425#7_0" arrivalPos="3.94" arrivalSpeed="13.03" duration="94.00" routeLength="862.18" waitingTime="1.00" waitingCount="1" stopTime="0.00" timeLoss="29.32" rerouteNo="1" devices="tripinfo_veh63 routing_veh63" vType="veh_passenger" speedFactor="1.02" vaporized=""/>
    <tripinfo id="veh13" depart="12.00" departLane="28846300#10_0" departPos="5.10" departSpeed="0.00" departDelay="0.25" arrival="152.00" arrivalLane="212681457#10_0" arrivalPos="26.92" arrivalSpeed="12.86" duration="140.00" routeLength="1804.30" waitingTime="0.00" waitingCount="0" stopTime="0.00" timeLoss="25.49" rerouteNo="1" devices="tripinfo_veh13 routing_veh13" vType="veh_passenger" speedFactor="1.01" vaporized=""/>
    <tripinfo id="veh78" depart="71.00" departLane="35330736#3_0" departPos="5.10" departSpeed="0.00" departDelay="0.48" arrival="152.00" arrivalLane="-190041623#1_0" arrivalPos="56.19" arrivalSpeed="14.82" duration="81.00" routeLength="997.14" waitingTime="1.00" waitingCount="1" stopTime="0.00" timeLoss="25.42" rerouteNo="1" devices="tripinfo_veh78 routing_veh78" vType="veh_passenger" speedFactor="1.07" vaporized=""/>
    <tripinfo id="veh62" depart="57.00" departLane="-213174704#1_0" departPos="5.10" departSpeed="0.00" departDelay="0.95" arrival="153.00" arrivalLane="-141597066#1_0" arrivalPos="24.94" arrivalSpeed="14.78" duration="96.00" routeLength="1238.86" waitingTime="15.00" waitingCount="1" stopTime="0.00" timeLoss="39.24" rerouteNo="1" devices="tripinfo_veh62 routing_veh62" vType="veh_passenger" speedFactor="1.12" vaporized=""/>
    <tripinfo id="veh9" depart="9.00" departLane="-213174585#0_0" departPos="5.10" departSpeed="0.00" departDelay="0.86" arrival="158.00" arrivalLane="-1082232646#0_0" arrivalPos="27.06" arrivalSpeed="14.49" duration="149.00" routeLength="2640.86" waitingTime="2.00" waitingCount="1" stopTime="0.00" timeLoss="45.15" rerouteNo="1" devices="tripinfo_veh9 routing_veh9" vType="veh_passenger" speedFactor="1.15" vaporized=""/>
    <tripinfo id="veh39" depart="36.00" departLane="-420773155_0" departPos="5.10" departSpeed="0.00" departDelay="0.74" arrival="158.00" arrivalLane="212744471#2_0" arrivalPos="12.14" arrivalSpeed="13.90" duration="122.00" routeLength="1960.64" waitingTime="3.00" waitingCount="1" stopTime="0.00" timeLoss="40.05" rerouteNo="1" devices="tripinfo_veh39 routing_veh39" vType="veh_passenger" speedFactor="1.01" vaporized=""/>
    <tripinfo id="motorcycle30" depart="82.00" departLane="-1055435580_0" departPos="2.30" departSpeed="0.00" departDelay="0.63" arrival="159.00" arrivalLane="213174787#3_0" arrivalPos="90.05" arrivalSpeed="12.77" duration="77.00" routeLength="775.92" waitingTime="0.00" waitingCount="0" stopTime="0.00" timeLoss="19.97" rerouteNo="1" devices="tripinfo_motorcycle30 routing_motorcycle30" vType="motorcycle_motorcycle" speedFactor="1.01" vaporized=""/>
    <tripinfo id="veh114" depart="104.00" departLane="212744321#1_0" departPos="5.10" departSpeed="0.00" departDelay="0.93" arrival="159.00" arrivalLane="212744404#6_0" arrivalPos="39.84" arrivalSpeed="12.61" duration="55.00" routeLength="513.51" waitingTime="0.00" waitingCount="0" stopTime="0.00" timeLoss="12.89" rerouteNo="1" devices="tripinfo_veh114 routing_veh114" vType="veh_passenger" speedFactor="0.92" vaporized=""/>
    <tripinfo id="motorcycle27" depart="74.00" departLane="807036607_0" departPos="2.30" departSpeed="0.00" departDelay="0.77" arrival="162.00" arrivalLane="141596951#8_0" arrivalPos="17.19" arrivalSpeed="12.79" duration="88.00" routeLength="966.12" waitingTime="0.00" waitingCount="0" stopTime="0.00" timeLoss="15.77" rerouteNo="1" devices="tripinfo_motorcycle27 routing_motorcycle27" vType="motorcycle_motorcycle" speedFactor="0.93" vaporized=""/>
    <tripinfo id="motorcycle33" depart="90.00" departLane="421000928_0" departPos="2.30" departSpeed="0.00" departDelay="0.49" arrival="162.00" arrivalLane="-212744321#0_0" arrivalPos="4.69" arrivalSpeed="12.91" duration="72.00" routeLength="769.32" waitingTime="0.00" waitingCount="0" stopTime="0.00" timeLoss="13.79" rerouteNo="1" devices="tripinfo_motorcycle33 routing_motorcycle33" vType="motorcycle_motorcycle" speedFactor="1.02" vaporized=""/>
    <tripinfo id="veh35" depart="32.00" departLane="420521385#3_0" departPos="5.10" departSpeed="0.00" departDelay="0.36" arrival="163.00" arrivalLane="1082236201_0" arrivalPos="28.45" arrivalSpeed="12.69" duration="131.00" routeLength="1647.82" waitingTime="0.00" waitingCount="0" stopTime="0.00" timeLoss="35.80" rerouteNo="1" devices="tripinfo_veh35 routing_veh35" vType="veh_passenger" speedFactor="0.96" vaporized=""/>
    <tripinfo id="veh83" depart="76.00" departLane="212681454#0_0" departPos="5.10" departSpeed="0.00" departDelay="0.96" arrival="166.00" arrivalLane="-648527012#5_0" arrivalPos="24.45" arrivalSpeed="14.59" duration="90.00" routeLength="1407.96" waitingTime="0.00" waitingCount="0" stopTime="0.00" timeLoss="19.06" rerouteNo="1" devices="tripinfo_veh83 routing_veh83" vType="veh_passenger" speedFactor="1.08" vaporized=""/>
    <tripinfo id="veh15" depart="14.00" departLane="188146358#2_0" departPos="5.10" departSpeed="0.00" departDelay="0.44" arrival="167.00" arrivalLane="648527031#1_0" arrivalPos="17.58" arrivalSpeed="13.72" duration="153.00" routeLength="2327.01" waitingTime="3.00" waitingCount="1" stopTime="0.00" timeLoss="61.94" rerouteNo="1" devices="tripinfo_veh15 routing_veh15" vType="veh_passenger" speedFactor="1.02" vaporized=""/>
    <tripinfo id="veh43" depart="39.00" departLane="213174310_0" departPos="5.10" departSpeed="0.00" departDelay="0.12" arrival="167.00" arrivalLane="-421054381_0" arrivalPos="108.86" arrivalSpeed="12.65" duration="128.00" routeLength="1923.78" waitingTime="0.00" waitingCount="0" stopTime="0.00" timeLoss="28.62" rerouteNo="1" devices="tripinfo_veh43 routing_veh43" vType="veh_passenger" speedFactor="1.00" vaporized=""/>